2
 energy: -4.901746682980 gnorm: 0.000159866822 xtb: 6.5.1 (homebrew)
Li           1.67671025570000        0.00000000000000        0.00000000000000
Cl          -0.32821959140000        0.00000000000000        0.00000000000000
