2
 energy: -4.444915220222 gnorm: 0.000003265487 xtb: 6.5.1 (homebrew)
Li           2.06426988530000        0.00000000000000        0.00000000000000
Br          -0.17929056120000        0.00000000000000        0.00000000000000
