 Entering Gaussian System
 *********************************************
 Gaussian 98:
 frequency output generated by the xtb code
 *********************************************
                         Standard orientation:
 --------------------------------------------------------------------
  Center     Atomic     Atomic              Coordinates (Angstroms)
  Number     Number      Type              X           Y           Z
 --------------------------------------------------------------------
    1         35             0       -0.743939    2.053573    0.751105
    2         50             0       -0.697773   -0.108884   -0.757010
    3         35             0       -2.837688   -1.180424    0.322673
    4          8             0        0.812203   -1.132702    1.054069
    5          6             0        1.475714   -0.652736    2.225544
    6          6             0        2.239028   -1.314214    1.159532
    7          6             0        3.092029   -0.569538    0.196883
    8          6             0        2.850213    0.768167   -0.114536
    9          6             0        3.658307    1.432025   -1.024862
   10          6             0        4.724318    0.769325   -1.624726
   11          6             0        4.974195   -0.559974   -1.312607
   12          6             0        4.157155   -1.228779   -0.408750
   13          1             0        1.232450   -1.205820    3.124317
   14          1             0        1.517185    0.426691    2.314768
   15          1             0        2.510867   -2.352827    1.309493
   16          1             0        2.032080    1.300535    0.357367
   17          1             0        3.459301    2.469821   -1.261485
   18          1             0        5.357101    1.290284   -2.332231
   19          1             0        5.801840   -1.080468   -1.777503
   20          1             0        4.346538   -2.268907   -0.169806
 --------------------------------------------------------------------
     1 basis functions        1 primitive gaussians
     1 alpha electrons        1 beta electrons

 Harmonic frequencies (cm**-1), IR intensities (km*mol⁻¹),
 Raman scattering activities (A**4/amu), Raman depolarization ratios,
 reduced masses (AMU), force constants (mDyne/A) and normal coordinates:
                      1                      2                      3
                        a                      a                      a 
 Frequencies --    34.4300                46.0591                49.1420
 Red. masses --    33.5760                59.9758                55.8928
 Frc consts  --     0.0000                 0.0000                 0.0000
 IR Inten    --     0.2873                 2.8262                 1.9661
 Raman Activ --     0.0000                 0.0000                 0.0000
 Depolar     --     0.0000                 0.0000                 0.0000
 Atom AN      X      Y      Z        X      Y      Z        X      Y      Z
   1  35     0.06   0.10  -0.07     0.07  -0.19   0.20     0.40  -0.17  -0.26
   2  50     0.32   0.07  -0.02     0.20  -0.23   0.25    -0.06  -0.35  -0.07
   3  35     0.35  -0.10  -0.08    -0.37   0.18  -0.46    -0.26   0.30   0.17
   4   8    -0.15  -0.03   0.18     0.11   0.12   0.21     0.01  -0.09  -0.02
   5   6    -0.09  -0.04   0.14     0.14   0.22   0.11    -0.02  -0.14   0.02
   6   6    -0.12  -0.02   0.11     0.10   0.15   0.12     0.02  -0.03  -0.02
   7   6    -0.18  -0.02   0.07     0.03   0.09   0.01    -0.00   0.07   0.04
   8   6    -0.13   0.02   0.17    -0.00   0.06  -0.08     0.01   0.12   0.21
   9   6    -0.22   0.01   0.10    -0.07  -0.00  -0.18    -0.01   0.21   0.25
  10   6    -0.34  -0.02  -0.08    -0.11  -0.03  -0.21    -0.06   0.26   0.12
  11   6    -0.38  -0.05  -0.18    -0.07  -0.01  -0.12    -0.07   0.21  -0.05
  12   6    -0.30  -0.05  -0.11    -0.00   0.05  -0.01    -0.05   0.12  -0.09
  13   1    -0.02  -0.02   0.04     0.06   0.08   0.05    -0.00  -0.06  -0.01
  14   1    -0.03  -0.01   0.05     0.03   0.06   0.01    -0.02  -0.04   0.03
  15   1    -0.03  -0.01   0.03     0.04   0.05   0.06     0.02  -0.01  -0.03
  16   1    -0.01   0.01   0.09     0.01   0.03  -0.02     0.01   0.02   0.09
  17   1    -0.05   0.01   0.05    -0.03  -0.01  -0.07    -0.00   0.07   0.11
  18   1    -0.12  -0.01  -0.04    -0.05  -0.02  -0.08    -0.02   0.09   0.04
  19   1    -0.13  -0.02  -0.09    -0.03  -0.01  -0.04    -0.03   0.07  -0.04
  20   1    -0.10  -0.02  -0.06     0.01   0.02   0.02    -0.02   0.03  -0.07
                      4                      5                      6
                        a                      a                      a 
 Frequencies --    70.9823                76.9199                83.5390
 Red. masses --    44.1555                48.2509                67.4034
 Frc consts  --     0.0000                 0.0000                 0.0000
 IR Inten    --     6.2528                 3.4752                 5.7046
 Raman Activ --     0.0000                 0.0000                 0.0000
 Depolar     --     0.0000                 0.0000                 0.0000
 Atom AN      X      Y      Z        X      Y      Z        X      Y      Z
   1  35    -0.33   0.22  -0.18    -0.14   0.36  -0.24     0.59   0.34  -0.05
   2  50     0.28  -0.06   0.24    -0.07   0.02   0.34    -0.20   0.08   0.17
   3  35    -0.04   0.26  -0.03    -0.19  -0.29  -0.17    -0.14  -0.43  -0.17
   4   8     0.10  -0.31  -0.02     0.11   0.06   0.06    -0.04  -0.08  -0.01
   5   6     0.10  -0.31  -0.01     0.20  -0.09   0.05    -0.06  -0.04  -0.01
   6   6     0.09  -0.22  -0.06     0.09  -0.06  -0.05    -0.03  -0.03   0.00
   7   6     0.03  -0.12  -0.04     0.08  -0.05  -0.04    -0.04  -0.00   0.01
   8   6    -0.16  -0.17  -0.08     0.23   0.03   0.16    -0.16  -0.05  -0.10
   9   6    -0.25  -0.06  -0.08     0.26   0.06   0.21    -0.20  -0.03  -0.12
  10   6    -0.12   0.09  -0.02     0.13   0.00   0.03    -0.09   0.05  -0.01
  11   6     0.10   0.15   0.04    -0.05  -0.08  -0.21     0.05   0.10   0.13
  12   6     0.17   0.04   0.03    -0.06  -0.11  -0.24     0.08   0.08   0.13
  13   1     0.04  -0.10  -0.01     0.06  -0.04   0.01    -0.01  -0.01  -0.00
  14   1     0.02  -0.09   0.01     0.08  -0.03   0.04    -0.02  -0.01  -0.01
  15   1     0.04  -0.06  -0.04     0.01  -0.03  -0.04     0.00  -0.00   0.00
  16   1    -0.07  -0.08  -0.03     0.09   0.02   0.08    -0.06  -0.03  -0.04
  17   1    -0.12  -0.03  -0.03     0.11   0.03   0.11    -0.09  -0.02  -0.06
  18   1    -0.05   0.05  -0.01     0.04   0.01   0.02    -0.04   0.02  -0.01
  19   1     0.06   0.08   0.03    -0.05  -0.04  -0.10     0.04   0.05   0.07
  20   1     0.10   0.02   0.02    -0.05  -0.05  -0.12     0.05   0.03   0.06
                      7                      8                      9
                        a                      a                      a 
 Frequencies --   129.6363               145.9883               189.3415
 Red. masses --    41.6109                13.7251                95.8486
 Frc consts  --     0.0000                 0.0000                 0.0000
 IR Inten    --    10.5104                 1.1734                10.2708
 Raman Activ --     0.0000                 0.0000                 0.0000
 Depolar     --     0.0000                 0.0000                 0.0000
 Atom AN      X      Y      Z        X      Y      Z        X      Y      Z
   1  35     0.00   0.11   0.05    -0.05   0.11   0.04    -0.02   0.48   0.34
   2  50     0.31  -0.26   0.33     0.05  -0.02   0.08    -0.33  -0.55  -0.18
   3  35     0.00   0.03  -0.03    -0.05  -0.02  -0.00     0.36   0.20  -0.18
   4   8    -0.28  -0.05  -0.18     0.10  -0.36  -0.37     0.04  -0.02   0.04
   5   6    -0.24   0.09  -0.22    -0.40  -0.02  -0.17     0.05   0.03   0.01
   6   6    -0.23   0.08  -0.21     0.13   0.10   0.14     0.04  -0.01   0.03
   7   6    -0.22   0.07  -0.22     0.17   0.14   0.21     0.02  -0.02   0.01
   8   6    -0.09   0.09  -0.22     0.21   0.14   0.18     0.00  -0.02   0.02
   9   6     0.13   0.08  -0.04     0.08   0.01  -0.04     0.00   0.00   0.04
  10   6     0.20   0.04   0.13    -0.10  -0.11  -0.22     0.00   0.01   0.02
  11   6     0.02  -0.00   0.07    -0.07  -0.08  -0.11    -0.00   0.00  -0.02
  12   6    -0.20   0.01  -0.12     0.07   0.05   0.11     0.01  -0.01  -0.02
  13   1    -0.05   0.04  -0.05    -0.15  -0.00  -0.06     0.02   0.02   0.01
  14   1    -0.09   0.03  -0.09    -0.22  -0.00  -0.07     0.01   0.01  -0.01
  15   1    -0.05   0.03  -0.04     0.10   0.05   0.10     0.01   0.00   0.02
  16   1    -0.03   0.04  -0.09     0.09   0.06   0.07    -0.01  -0.01   0.00
  17   1     0.07   0.03  -0.01     0.02  -0.00  -0.03     0.00   0.00   0.02
  18   1     0.11   0.01   0.09    -0.07  -0.06  -0.12     0.00   0.01   0.01
  19   1     0.02  -0.01   0.05    -0.05  -0.05  -0.06    -0.00   0.00  -0.01
  20   1    -0.09  -0.00  -0.04     0.02   0.02   0.05     0.00  -0.01  -0.01
                     10                     11                     12
                        a                      a                      a 
 Frequencies --   202.9028               222.0669               226.1655
 Red. masses --    92.4016                11.4872                20.0678
 Frc consts  --     0.0000                 0.0000                 0.0000
 IR Inten    --    14.6915                 6.2352                 8.0849
 Raman Activ --     0.0000                 0.0000                 0.0000
 Depolar     --     0.0000                 0.0000                 0.0000
 Atom AN      X      Y      Z        X      Y      Z        X      Y      Z
   1  35     0.05  -0.34  -0.27    -0.01   0.04   0.02    -0.01   0.07   0.05
   2  50    -0.44   0.12   0.45     0.03  -0.11   0.03    -0.01   0.08  -0.23
   3  35     0.48   0.21  -0.27     0.03   0.02  -0.01    -0.09  -0.05   0.07
   4   8    -0.01  -0.15   0.05    -0.15   0.35  -0.05     0.02  -0.52   0.39
   5   6    -0.03  -0.05   0.02     0.01  -0.45   0.18     0.05  -0.20   0.23
   6   6     0.01   0.03   0.01    -0.16   0.00  -0.22     0.10   0.09   0.09
   7   6    -0.03   0.05  -0.01    -0.00   0.20   0.07    -0.14   0.19  -0.07
   8   6     0.01   0.05  -0.04     0.12   0.21   0.03    -0.01   0.19  -0.19
   9   6     0.04   0.02  -0.05     0.08   0.03  -0.15     0.16   0.06  -0.15
  10   6     0.04  -0.01  -0.01    -0.04  -0.13  -0.21     0.20  -0.03   0.01
  11   6     0.01  -0.01   0.02     0.02  -0.05   0.07     0.00  -0.06   0.04
  12   6    -0.03   0.03   0.01     0.04   0.13   0.20    -0.17   0.08  -0.02
  13   1     0.02  -0.02   0.01    -0.01  -0.26  -0.03     0.13  -0.09   0.08
  14   1    -0.04  -0.01   0.00     0.06  -0.14   0.21    -0.10  -0.05   0.06
  15   1     0.03   0.02   0.01    -0.11  -0.04  -0.23     0.14   0.05   0.03
  16   1     0.01   0.02  -0.02     0.05   0.09   0.02     0.00   0.09  -0.07
  17   1     0.02   0.00  -0.02     0.04   0.00  -0.08     0.08   0.02  -0.06
  18   1     0.02  -0.01  -0.00    -0.04  -0.08  -0.12     0.10  -0.03   0.03
  19   1     0.00  -0.01   0.01    -0.00  -0.04   0.04    -0.00  -0.05   0.04
  20   1    -0.02   0.01   0.01     0.00   0.05   0.10    -0.08   0.02   0.01
                     13                     14                     15
                        a                      a                      a 
 Frequencies --   348.2648               381.0538               386.4145
 Red. masses --    11.0123                11.0814                 9.1128
 Frc consts  --     0.0000                 0.0000                 0.0000
 IR Inten    --     3.4810                 0.2275                 0.3123
 Raman Activ --     0.0000                 0.0000                 0.0000
 Depolar     --     0.0000                 0.0000                 0.0000
 Atom AN      X      Y      Z        X      Y      Z        X      Y      Z
   1  35     0.01  -0.00  -0.01     0.00   0.00  -0.00    -0.01   0.01   0.01
   2  50     0.00  -0.01   0.02     0.00   0.01   0.00    -0.01  -0.00  -0.01
   3  35     0.00   0.01  -0.00    -0.00  -0.00  -0.00    -0.00  -0.00   0.00
   4   8     0.32   0.26  -0.28     0.29  -0.06  -0.21     0.01  -0.06  -0.00
   5   6    -0.13  -0.19   0.15     0.36   0.05  -0.24     0.11   0.06  -0.10
   6   6     0.22   0.12   0.21     0.16  -0.09  -0.20     0.01  -0.04  -0.08
   7   6     0.10   0.10   0.15    -0.13   0.21  -0.03    -0.04   0.03  -0.03
   8   6    -0.17  -0.02  -0.14    -0.24   0.20   0.02     0.25   0.17   0.37
   9   6    -0.17  -0.07  -0.17    -0.01   0.07   0.14    -0.23  -0.10  -0.25
  10   6     0.16   0.04   0.28    -0.17  -0.20   0.16    -0.06  -0.06  -0.00
  11   6    -0.08  -0.07  -0.01    -0.20  -0.21   0.14     0.23   0.09   0.35
  12   6    -0.23  -0.10  -0.19    -0.15   0.02   0.27    -0.26  -0.11  -0.25
  13   1    -0.13  -0.16  -0.04     0.09   0.06  -0.05     0.05   0.05  -0.00
  14   1    -0.05  -0.06   0.16     0.15   0.02  -0.12     0.04   0.02  -0.06
  15   1     0.04   0.02   0.02     0.08  -0.02  -0.08     0.01  -0.01  -0.02
  16   1    -0.07  -0.02  -0.06    -0.08   0.06  -0.02     0.15   0.09   0.20
  17   1    -0.08  -0.04  -0.11     0.07   0.03   0.03    -0.13  -0.06  -0.17
  18   1     0.12   0.04   0.17    -0.04  -0.09   0.03    -0.03  -0.03  -0.02
  19   1    -0.03  -0.03  -0.01    -0.08  -0.08   0.03     0.15   0.06   0.21
  20   1    -0.13  -0.05  -0.11    -0.08   0.02   0.15    -0.16  -0.07  -0.16
                     16                     17                     18
                        a                      a                      a 
 Frequencies --   520.0286               560.8228               590.6165
 Red. masses --     9.4425                10.5461                11.2017
 Frc consts  --     0.0000                 0.0000                 0.0000
 IR Inten    --     1.3734                 4.8567                 0.1337
 Raman Activ --     0.0000                 0.0000                 0.0000
 Depolar     --     0.0000                 0.0000                 0.0000
 Atom AN      X      Y      Z        X      Y      Z        X      Y      Z
   1  35     0.00   0.00  -0.00     0.00  -0.00  -0.00    -0.00   0.00   0.00
   2  50    -0.00  -0.00   0.00     0.00   0.00  -0.00    -0.00  -0.00  -0.00
   3  35     0.00   0.00  -0.00    -0.00  -0.00   0.00    -0.00   0.00  -0.00
   4   8     0.16   0.08  -0.06    -0.22  -0.10   0.13     0.05  -0.01  -0.03
   5   6    -0.13  -0.04   0.13     0.03   0.01  -0.05     0.03  -0.02   0.00
   6   6     0.14   0.33   0.04    -0.04   0.35  -0.30    -0.01  -0.07   0.03
   7   6    -0.14  -0.11  -0.47     0.37   0.12  -0.04     0.05  -0.15   0.01
   8   6    -0.08  -0.03  -0.04     0.05   0.06   0.07     0.36  -0.10  -0.25
   9   6     0.04   0.11   0.22    -0.23   0.10  -0.06     0.05   0.43  -0.19
  10   6    -0.30  -0.15  -0.09    -0.09  -0.05   0.36    -0.08   0.17  -0.03
  11   6     0.17  -0.02   0.17    -0.03  -0.18  -0.12    -0.39   0.14   0.29
  12   6     0.05  -0.19  -0.08     0.24  -0.25   0.05    -0.08  -0.36   0.18
  13   1     0.02  -0.16  -0.03     0.19  -0.07  -0.01    -0.02   0.01   0.00
  14   1    -0.19  -0.02   0.17    -0.14   0.00   0.03     0.04  -0.01  -0.02
  15   1     0.08   0.11   0.07     0.02   0.11  -0.07    -0.01  -0.02   0.01
  16   1     0.04  -0.03   0.12    -0.05  -0.09   0.02     0.08  -0.07  -0.05
  17   1     0.12   0.07   0.16    -0.10  -0.00  -0.12    -0.04   0.12  -0.01
  18   1    -0.10  -0.04  -0.04    -0.02  -0.01   0.10     0.06  -0.08  -0.03
  19   1     0.15   0.08   0.13    -0.05   0.00  -0.16    -0.10   0.08   0.06
  20   1     0.06  -0.02   0.07    -0.00  -0.09  -0.01     0.03  -0.10   0.00
                     19                     20                     21
                        a                      a                      a 
 Frequencies --   674.0222               758.5510               778.1993
 Red. masses --     9.8466                 8.0049                 5.2771
 Frc consts  --     0.0000                 0.0000                 0.0000
 IR Inten    --     3.2618                 8.2279                31.4231
 Raman Activ --     0.0000                 0.0000                 0.0000
 Depolar     --     0.0000                 0.0000                 0.0000
 Atom AN      X      Y      Z        X      Y      Z        X      Y      Z
   1  35     0.00  -0.00  -0.00     0.00  -0.00  -0.00    -0.00   0.00   0.00
   2  50     0.00   0.00   0.00     0.00   0.00   0.00    -0.00  -0.00  -0.00
   3  35    -0.00  -0.00   0.00    -0.00   0.00  -0.00     0.00   0.00   0.00
   4   8    -0.10  -0.03   0.04     0.10  -0.04  -0.13    -0.09  -0.04  -0.04
   5   6     0.02  -0.01  -0.03     0.15   0.06   0.01     0.12   0.01  -0.07
   6   6    -0.02   0.01  -0.04    -0.07   0.31  -0.19    -0.02   0.16  -0.12
   7   6     0.34   0.17   0.36    -0.12  -0.09   0.03     0.19   0.07   0.29
   8   6    -0.20  -0.07  -0.24     0.07  -0.23   0.11    -0.08  -0.16  -0.08
   9   6     0.19   0.13   0.26     0.09  -0.32   0.13    -0.03  -0.19  -0.03
  10   6    -0.20  -0.10  -0.18     0.19   0.15  -0.12    -0.03   0.01  -0.20
  11   6     0.24   0.07   0.24    -0.18   0.18   0.16    -0.17   0.05  -0.02
  12   6    -0.15  -0.11  -0.24    -0.11   0.10   0.14    -0.16  -0.03  -0.08
  13   1     0.02   0.03   0.01     0.26  -0.17  -0.05     0.17  -0.05  -0.02
  14   1     0.03   0.00  -0.04    -0.21   0.01   0.12    -0.07   0.00   0.01
  15   1    -0.02  -0.00  -0.04     0.06   0.12   0.05     0.00   0.05  -0.04
  16   1    -0.16  -0.08  -0.19    -0.07  -0.09  -0.11     0.17   0.05   0.20
  17   1    -0.00   0.01  -0.01    -0.17  -0.15  -0.04     0.17   0.05   0.30
  18   1    -0.15  -0.07  -0.17    -0.09  -0.01  -0.19     0.26   0.14   0.29
  19   1     0.01   0.00  -0.02    -0.19  -0.08  -0.06     0.17   0.09   0.30
  20   1    -0.16  -0.08  -0.20    -0.10  -0.02  -0.13     0.17   0.09   0.21
                     22                     23                     24
                        a                      a                      a 
 Frequencies --   867.5793               885.2293               915.4587
 Red. masses --    12.3170                 3.3190                 3.5057
 Frc consts  --     0.0000                 0.0000                 0.0000
 IR Inten    --    35.1915                 3.8513                 1.4583
 Raman Activ --     0.0000                 0.0000                 0.0000
 Depolar     --     0.0000                 0.0000                 0.0000
 Atom AN      X      Y      Z        X      Y      Z        X      Y      Z
   1  35     0.00   0.00   0.00    -0.00   0.00   0.00    -0.00   0.00   0.00
   2  50    -0.00  -0.00  -0.00    -0.00  -0.00  -0.00    -0.00  -0.00  -0.00
   3  35    -0.00  -0.00  -0.00    -0.00   0.00  -0.00    -0.00  -0.00  -0.00
   4   8     0.45  -0.19  -0.15    -0.03   0.03   0.03     0.01  -0.02  -0.02
   5   6     0.05   0.18   0.43    -0.01  -0.00  -0.06     0.03   0.02   0.02
   6   6    -0.59  -0.05  -0.24     0.04  -0.03   0.01    -0.05  -0.00  -0.02
   7   6     0.03   0.01   0.07     0.01  -0.01   0.00     0.04   0.01   0.06
   8   6     0.01   0.00  -0.04    -0.17  -0.06  -0.18    -0.15  -0.06  -0.16
   9   6    -0.04   0.08  -0.04    -0.11  -0.05  -0.15     0.03   0.02   0.02
  10   6    -0.07  -0.04   0.02     0.01   0.00  -0.01     0.18   0.09   0.22
  11   6     0.10  -0.05  -0.07     0.10   0.06   0.14     0.05   0.02   0.06
  12   6     0.04   0.01  -0.02     0.16   0.06   0.20    -0.15  -0.09  -0.20
  13   1    -0.12   0.08   0.09     0.03  -0.01  -0.01     0.00   0.01   0.01
  14   1    -0.08   0.06   0.04    -0.02  -0.00   0.01    -0.02   0.00  -0.00
  15   1    -0.09   0.01   0.01     0.02  -0.00   0.04    -0.02  -0.01  -0.01
  16   1     0.03   0.01   0.03     0.31   0.15   0.38     0.29   0.14   0.36
  17   1     0.05   0.04   0.03     0.24   0.11   0.29    -0.08  -0.04  -0.11
  18   1     0.02   0.02   0.07     0.01  -0.00   0.01    -0.28  -0.14  -0.35
  19   1     0.05   0.01  -0.02    -0.23  -0.11  -0.28    -0.12  -0.05  -0.16
  20   1    -0.04  -0.02  -0.05    -0.29  -0.14  -0.37     0.31   0.14   0.38
                     25                     26                     27
                        a                      a                      a 
 Frequencies --   936.8906               939.7134               945.4578
 Red. masses --    10.2118                 4.0476                 3.1582
 Frc consts  --     0.0000                 0.0000                 0.0000
 IR Inten    --    46.8881                 0.4776                 0.1180
 Raman Activ --     0.0000                 0.0000                 0.0000
 Depolar     --     0.0000                 0.0000                 0.0000
 Atom AN      X      Y      Z        X      Y      Z        X      Y      Z
   1  35    -0.00  -0.00  -0.00     0.00  -0.00  -0.00     0.00  -0.00  -0.00
   2  50     0.00  -0.00   0.00     0.00   0.00   0.00     0.00   0.00   0.00
   3  35     0.00   0.00  -0.00    -0.00  -0.00   0.00     0.00   0.00  -0.00
   4   8    -0.34  -0.03  -0.38     0.00  -0.02  -0.01    -0.01  -0.02  -0.01
   5   6     0.40   0.04   0.06    -0.00  -0.01   0.03     0.00  -0.02   0.02
   6   6    -0.09  -0.05   0.29     0.00   0.04   0.00     0.01   0.05  -0.00
   7   6    -0.11  -0.10   0.12    -0.01   0.00  -0.02     0.04   0.03   0.04
   8   6     0.11  -0.02  -0.06     0.15   0.04   0.16     0.05   0.01   0.05
   9   6    -0.05   0.23  -0.07    -0.15  -0.08  -0.18    -0.16  -0.10  -0.19
  10   6    -0.09  -0.09   0.11    -0.05  -0.02  -0.05     0.17   0.09   0.22
  11   6     0.17  -0.10  -0.10     0.20   0.09   0.25    -0.10  -0.04  -0.12
  12   6    -0.03   0.16  -0.04    -0.13  -0.05  -0.16    -0.00  -0.00  -0.00
  13   1     0.23  -0.16  -0.06    -0.03   0.02   0.01    -0.04   0.03   0.01
  14   1    -0.10   0.00   0.14     0.03  -0.00  -0.02     0.04  -0.00  -0.03
  15   1     0.02   0.04   0.35    -0.01   0.00  -0.04    -0.00   0.01  -0.04
  16   1     0.00  -0.03  -0.03    -0.21  -0.10  -0.26    -0.14  -0.07  -0.17
  17   1     0.03   0.07  -0.01     0.23   0.11   0.31     0.31   0.15   0.41
  18   1    -0.03  -0.04   0.01     0.08   0.04   0.10    -0.34  -0.16  -0.42
  19   1     0.05  -0.02  -0.03    -0.33  -0.16  -0.41     0.21   0.10   0.27
  20   1    -0.01   0.04  -0.00     0.20   0.10   0.27    -0.07  -0.03  -0.08
                     28                     29                     30
                        a                      a                      a 
 Frequencies --   964.0029               987.5577              1047.3477
 Red. masses --     9.3088                 9.2327                 2.1859
 Frc consts  --     0.0000                 0.0000                 0.0000
 IR Inten    --    47.8373                 0.5774                 3.4967
 Raman Activ --     0.0000                 0.0000                 0.0000
 Depolar     --     0.0000                 0.0000                 0.0000
 Atom AN      X      Y      Z        X      Y      Z        X      Y      Z
   1  35    -0.00  -0.00  -0.00    -0.00   0.00   0.00    -0.00   0.00   0.00
   2  50     0.00   0.00   0.00    -0.00  -0.00  -0.00    -0.00  -0.00  -0.00
   3  35     0.00   0.00  -0.00    -0.00  -0.00   0.00     0.00   0.00  -0.00
   4   8    -0.28  -0.20  -0.32     0.02  -0.04   0.02    -0.04  -0.06   0.11
   5   6     0.29  -0.10   0.28    -0.05  -0.08   0.02    -0.03   0.04  -0.10
   6   6     0.01   0.33   0.20     0.10   0.23  -0.02    -0.12   0.04  -0.20
   7   6     0.00   0.05  -0.13    -0.08  -0.02   0.02     0.05   0.06  -0.01
   8   6    -0.11   0.05   0.05     0.36  -0.37  -0.19     0.05  -0.05  -0.02
   9   6     0.04  -0.13   0.06    -0.03   0.05   0.04     0.00  -0.04   0.01
  10   6     0.06   0.08  -0.10    -0.21  -0.15   0.22    -0.02  -0.01   0.02
  11   6    -0.05   0.06   0.03     0.06  -0.08  -0.02    -0.02   0.00   0.01
  12   6     0.09  -0.19   0.05    -0.13   0.46  -0.04    -0.02   0.04  -0.02
  13   1    -0.30   0.21   0.11    -0.10   0.12   0.06    -0.36  -0.14  -0.22
  14   1     0.31  -0.01  -0.13     0.13  -0.01  -0.13     0.50  -0.03   0.28
  15   1    -0.03   0.05  -0.19    -0.00   0.02  -0.31     0.40   0.19   0.41
  16   1     0.01   0.04   0.05     0.14  -0.14   0.05     0.01  -0.05   0.03
  17   1    -0.03  -0.05  -0.02    -0.12  -0.01   0.05    -0.02  -0.01   0.02
  18   1     0.02   0.06  -0.00    -0.07  -0.02   0.07    -0.01   0.00   0.01
  19   1    -0.02   0.04  -0.03    -0.01  -0.08   0.03    -0.01  -0.01   0.01
  20   1     0.00  -0.07  -0.05    -0.10   0.12  -0.01    -0.00   0.02   0.03
                     31                     32                     33
                        a                      a                      a 
 Frequencies --  1076.3085              1087.2731              1114.3670
 Red. masses --     7.1070                 3.5356                 4.1392
 Frc consts  --     0.0000                 0.0000                 0.0000
 IR Inten    --     0.2345                 7.2681                 2.3417
 Raman Activ --     0.0000                 0.0000                 0.0000
 Depolar     --     0.0000                 0.0000                 0.0000
 Atom AN      X      Y      Z        X      Y      Z        X      Y      Z
   1  35     0.00  -0.00   0.00     0.00  -0.00  -0.00    -0.00   0.00  -0.00
   2  50     0.00   0.00   0.00    -0.00   0.00  -0.00    -0.00   0.00  -0.00
   3  35    -0.00   0.00  -0.00     0.00  -0.00   0.00    -0.00   0.00   0.00
   4   8     0.04  -0.03   0.01    -0.12  -0.00   0.13     0.03  -0.25  -0.01
   5   6    -0.06   0.00  -0.04     0.34   0.11  -0.01    -0.07   0.36  -0.08
   6   6     0.01   0.07   0.01     0.13  -0.11  -0.08     0.04   0.04   0.16
   7   6    -0.04  -0.01   0.03     0.07   0.03  -0.04    -0.01  -0.06   0.03
   8   6    -0.09  -0.07   0.10    -0.01  -0.03   0.02    -0.07   0.02   0.04
   9   6    -0.17   0.33   0.02    -0.03   0.05   0.00     0.02   0.04  -0.03
  10   6     0.26   0.21  -0.29     0.05  -0.00  -0.04     0.01  -0.06   0.01
  11   6     0.25  -0.27  -0.09    -0.03  -0.03   0.03    -0.04   0.04   0.02
  12   6    -0.10  -0.10   0.12    -0.02   0.07  -0.01     0.03   0.04  -0.04
  13   1     0.07  -0.00   0.01    -0.61  -0.03  -0.22     0.06  -0.28  -0.23
  14   1     0.13  -0.01   0.02    -0.53   0.05   0.10     0.26   0.05   0.44
  15   1    -0.03   0.00  -0.06    -0.01  -0.05  -0.10    -0.31  -0.13  -0.40
  16   1    -0.09  -0.23   0.16    -0.04  -0.12   0.06    -0.04  -0.06   0.06
  17   1    -0.28   0.10   0.19    -0.03   0.01   0.03     0.11   0.02  -0.08
  18   1     0.07   0.07  -0.09     0.05  -0.05  -0.02     0.06  -0.11  -0.01
  19   1     0.01  -0.31   0.11    -0.03  -0.09   0.07    -0.02   0.00   0.01
  20   1    -0.23  -0.03   0.19    -0.02   0.02   0.01     0.11   0.01  -0.11
                     34                     35                     36
                        a                      a                      a 
 Frequencies --  1123.2851              1183.3409              1191.3335
 Red. masses --     4.3633                 1.3288                 3.7369
 Frc consts  --     0.0000                 0.0000                 0.0000
 IR Inten    --     1.2789                 0.1385                 1.1688
 Raman Activ --     0.0000                 0.0000                 0.0000
 Depolar     --     0.0000                 0.0000                 0.0000
 Atom AN      X      Y      Z        X      Y      Z        X      Y      Z
   1  35    -0.00   0.00   0.00     0.00  -0.00  -0.00     0.00  -0.00  -0.00
   2  50    -0.00  -0.00  -0.00     0.00  -0.00   0.00     0.00  -0.00   0.00
   3  35    -0.00   0.00   0.00     0.00   0.00  -0.00    -0.00  -0.00   0.00
   4   8     0.02  -0.05   0.05    -0.01   0.00  -0.01    -0.04  -0.03  -0.06
   5   6     0.05   0.09  -0.09    -0.01   0.00   0.01    -0.04   0.04   0.07
   6   6     0.02  -0.02   0.05     0.00  -0.03   0.00     0.02  -0.14   0.04
   7   6    -0.13   0.08   0.08     0.06  -0.03  -0.04     0.23   0.16  -0.25
   8   6     0.18   0.02  -0.16     0.04   0.02  -0.04     0.05  -0.05  -0.02
   9   6     0.03  -0.15   0.04     0.05  -0.01  -0.04     0.07  -0.14  -0.01
  10   6    -0.11   0.16   0.03    -0.05   0.08   0.01     0.00  -0.00  -0.00
  11   6     0.17  -0.07  -0.11    -0.02  -0.03   0.03    -0.09   0.13   0.02
  12   6    -0.07  -0.23   0.14    -0.04  -0.02   0.04    -0.07   0.09   0.03
  13   1    -0.08  -0.14  -0.15     0.02   0.02   0.02     0.07   0.04   0.06
  14   1    -0.04   0.01   0.11    -0.00   0.00   0.01     0.02   0.01   0.07
  15   1    -0.08  -0.04  -0.12    -0.00  -0.01   0.01    -0.19  -0.07   0.15
  16   1     0.14   0.31  -0.23    -0.05  -0.20   0.11    -0.08  -0.37   0.21
  17   1    -0.13  -0.05   0.12     0.39  -0.00  -0.31     0.15  -0.04  -0.10
  18   1    -0.26   0.39   0.06    -0.37   0.56   0.08     0.02  -0.04  -0.00
  19   1     0.11   0.20  -0.16    -0.11  -0.37   0.23     0.04   0.27  -0.13
  20   1    -0.25  -0.07   0.22     0.08  -0.00  -0.06    -0.48   0.03   0.37
                     37                     38                     39
                        a                      a                      a 
 Frequencies --  1207.4512              1236.1240              1285.0400
 Red. masses --     5.8670                 4.9266                 4.1224
 Frc consts  --     0.0000                 0.0000                 0.0000
 IR Inten    --     4.0256                 7.5432                 1.8326
 Raman Activ --     0.0000                 0.0000                 0.0000
 Depolar     --     0.0000                 0.0000                 0.0000
 Atom AN      X      Y      Z        X      Y      Z        X      Y      Z
   1  35    -0.00  -0.00   0.00     0.00   0.00   0.00     0.00  -0.00  -0.00
   2  50    -0.00   0.00  -0.00    -0.00   0.00  -0.00     0.00   0.00   0.00
   3  35     0.00  -0.00   0.00    -0.00  -0.00   0.00    -0.00   0.00  -0.00
   4   8    -0.07  -0.05  -0.08     0.16  -0.05   0.16     0.07  -0.00   0.04
   5   6    -0.06   0.10   0.14     0.11  -0.22  -0.22     0.04  -0.08  -0.11
   6   6     0.04  -0.19   0.03    -0.07   0.33   0.01    -0.07   0.03   0.07
   7   6     0.31   0.17  -0.30     0.06  -0.19   0.01    -0.05   0.16  -0.02
   8   6     0.10   0.11  -0.12    -0.03   0.02   0.02     0.09   0.23  -0.16
   9   6    -0.05  -0.14   0.10    -0.06   0.05   0.03     0.02  -0.07   0.01
  10   6    -0.05  -0.02   0.04     0.00  -0.02   0.01     0.13  -0.23  -0.02
  11   6    -0.14  -0.01   0.12     0.01   0.07  -0.04     0.01  -0.01  -0.00
  12   6     0.09   0.10  -0.11    -0.02   0.06  -0.00    -0.17  -0.03   0.14
  13   1     0.08  -0.01   0.05    -0.16  -0.06  -0.12    -0.01   0.00  -0.02
  14   1     0.04   0.02   0.11     0.07  -0.06  -0.17     0.00  -0.02  -0.04
  15   1    -0.19  -0.09   0.14    -0.61  -0.01   0.36    -0.20  -0.02   0.13
  16   1     0.08   0.20  -0.14     0.03   0.16  -0.09    -0.10  -0.37   0.22
  17   1    -0.34  -0.04   0.29     0.10   0.02  -0.09    -0.28  -0.02   0.23
  18   1    -0.03   0.02   0.02     0.03  -0.05  -0.01    -0.13   0.19   0.03
  19   1    -0.14  -0.35   0.25    -0.03  -0.09   0.06     0.07   0.22  -0.14
  20   1     0.01   0.03  -0.02    -0.08   0.02   0.06     0.35  -0.00  -0.28
                     40                     41                     42
                        a                      a                      a 
 Frequencies --  1300.6690              1363.3770              1423.6939
 Red. masses --    11.3806                 7.4369                 6.9203
 Frc consts  --     0.0000                 0.0000                 0.0000
 IR Inten    --     1.8566                21.7021                 0.5154
 Raman Activ --     0.0000                 0.0000                 0.0000
 Depolar     --     0.0000                 0.0000                 0.0000
 Atom AN      X      Y      Z        X      Y      Z        X      Y      Z
   1  35    -0.00  -0.00  -0.00    -0.00  -0.00  -0.00     0.00  -0.00  -0.00
   2  50    -0.00  -0.00   0.00    -0.00  -0.00  -0.00    -0.00   0.00   0.00
   3  35     0.00   0.00  -0.00     0.00   0.00  -0.00     0.00   0.00   0.00
   4   8    -0.06  -0.00  -0.03    -0.12  -0.06  -0.09    -0.04   0.01   0.00
   5   6    -0.04   0.05   0.09    -0.09   0.06   0.19    -0.04   0.09   0.17
   6   6     0.08  -0.01  -0.09     0.44  -0.00  -0.43     0.01   0.01  -0.01
   7   6     0.20  -0.38  -0.02    -0.10  -0.11   0.13     0.20  -0.26  -0.06
   8   6     0.09   0.26  -0.17    -0.07  -0.08   0.09    -0.18  -0.03   0.16
   9   6    -0.33   0.02   0.26     0.05   0.11  -0.09     0.09   0.20  -0.15
  10   6     0.20  -0.30  -0.04     0.04   0.00  -0.03     0.20  -0.25  -0.06
  11   6     0.10   0.34  -0.21    -0.01  -0.16   0.07    -0.20  -0.12   0.20
  12   6    -0.30  -0.01   0.24    -0.07   0.07   0.03     0.03   0.21  -0.10
  13   1    -0.00   0.04   0.05    -0.04   0.28   0.22    -0.00  -0.30  -0.16
  14   1     0.01   0.01   0.05     0.02   0.01   0.33     0.06   0.04  -0.34
  15   1     0.14   0.01  -0.09    -0.25  -0.05   0.22     0.08   0.01  -0.06
  16   1     0.03   0.08  -0.05     0.01   0.10  -0.05    -0.01   0.12  -0.03
  17   1     0.07   0.01  -0.06    -0.01   0.03  -0.01    -0.12   0.06   0.07
  18   1     0.01  -0.02  -0.00    -0.06   0.11   0.00    -0.18   0.28   0.03
  19   1    -0.01  -0.03   0.01     0.05   0.15  -0.10     0.01   0.21  -0.09
  20   1    -0.05  -0.00   0.04     0.08   0.02  -0.07    -0.09   0.06   0.05
                     43                     44                     45
                        a                      a                      a 
 Frequencies --  1445.7042              1470.9827              1574.5500
 Red. masses --     6.3378                 8.8826                11.4283
 Frc consts  --     0.0000                 0.0000                 0.0000
 IR Inten    --     7.6942                 0.9694                 0.3901
 Raman Activ --     0.0000                 0.0000                 0.0000
 Depolar     --     0.0000                 0.0000                 0.0000
 Atom AN      X      Y      Z        X      Y      Z        X      Y      Z
   1  35    -0.00  -0.00  -0.00     0.00  -0.00  -0.00    -0.00   0.00   0.00
   2  50     0.00   0.00   0.00     0.00   0.00   0.00     0.00  -0.00  -0.00
   3  35     0.00   0.00  -0.00     0.00  -0.00  -0.00    -0.00  -0.00   0.00
   4   8    -0.08  -0.01  -0.03    -0.04  -0.01  -0.02    -0.00  -0.00  -0.01
   5   6    -0.09   0.17   0.33    -0.04   0.08   0.16    -0.00   0.01   0.01
   6   6     0.22  -0.10  -0.16     0.19   0.03  -0.19     0.04  -0.04  -0.02
   7   6    -0.06   0.23  -0.03    -0.24  -0.19   0.27    -0.27   0.42   0.06
   8   6     0.11  -0.11  -0.05    -0.04   0.27  -0.07     0.05  -0.32   0.08
   9   6    -0.15  -0.06   0.15     0.28  -0.10  -0.19    -0.19   0.19   0.08
  10   6    -0.04   0.19  -0.04    -0.17  -0.07   0.16     0.27  -0.45  -0.04
  11   6     0.12  -0.09  -0.06     0.04   0.30  -0.14    -0.08   0.33  -0.06
  12   6    -0.15  -0.06   0.14     0.19  -0.13  -0.10     0.23  -0.18  -0.12
  13   1     0.00  -0.38  -0.18    -0.02  -0.12  -0.05     0.00  -0.00   0.00
  14   1     0.09   0.07  -0.43     0.04   0.03  -0.16    -0.00   0.00   0.00
  15   1    -0.12  -0.05   0.12    -0.03  -0.00   0.03    -0.05  -0.01   0.05
  16   1     0.04  -0.04   0.00    -0.09  -0.19   0.15     0.05   0.05  -0.05
  17   1     0.15  -0.02  -0.11    -0.17  -0.03   0.15     0.02   0.05  -0.04
  18   1     0.11  -0.12  -0.04    -0.03  -0.06   0.04    -0.08   0.11   0.02
  19   1     0.04  -0.00  -0.03    -0.07  -0.19   0.13    -0.06  -0.04   0.06
  20   1     0.16  -0.02  -0.12    -0.16  -0.04   0.14    -0.05  -0.04   0.06
                     46                     47                     48
                        a                      a                      a 
 Frequencies --  1580.9777              3028.4883              3035.2482
 Red. masses --    11.4150                 1.6478                 1.6731
 Frc consts  --     0.0000                 0.0000                 0.0000
 IR Inten    --     0.1415                 7.5051                 4.0100
 Raman Activ --     0.0000                 0.0000                 0.0000
 Depolar     --     0.0000                 0.0000                 0.0000
 Atom AN      X      Y      Z        X      Y      Z        X      Y      Z
   1  35     0.00   0.00  -0.00    -0.00   0.00   0.00     0.00  -0.00  -0.00
   2  50     0.00  -0.00   0.00     0.00  -0.00   0.00    -0.00   0.00   0.00
   3  35    -0.00   0.00  -0.00     0.00   0.00  -0.00     0.00   0.00  -0.00
   4   8     0.01  -0.00  -0.00    -0.00  -0.00  -0.00    -0.01   0.00   0.00
   5   6     0.00  -0.00   0.00     0.02  -0.14  -0.09    -0.03   0.04   0.10
   6   6     0.02   0.02  -0.03    -0.04   0.16  -0.02    -0.04   0.18  -0.03
   7   6    -0.20  -0.11   0.20    -0.00   0.00   0.00    -0.00   0.01  -0.00
   8   6     0.19   0.30  -0.27    -0.02   0.01   0.01     0.08  -0.05  -0.05
   9   6    -0.33  -0.10   0.30     0.00  -0.00   0.00    -0.00   0.02  -0.00
  10   6     0.13   0.07  -0.13     0.00  -0.00  -0.00    -0.00   0.00   0.00
  11   6    -0.18  -0.28   0.25    -0.00   0.00   0.00    -0.01   0.01   0.00
  12   6     0.35   0.08  -0.31     0.00  -0.02   0.00     0.01  -0.05   0.01
  13   1    -0.00   0.00   0.00    -0.07  -0.18   0.26     0.09   0.23  -0.35
  14   1     0.00   0.00  -0.00     0.03   0.69   0.04    -0.02  -0.36  -0.02
  15   1    -0.01   0.00   0.00     0.15  -0.57   0.08     0.17  -0.64   0.09
  16   1    -0.00  -0.10   0.05     0.07  -0.05  -0.04    -0.29   0.19   0.17
  17   1     0.09  -0.02  -0.06    -0.00   0.02  -0.00     0.02  -0.08   0.02
  18   1     0.03   0.03  -0.03    -0.00  -0.00   0.00     0.01   0.00  -0.01
  19   1    -0.00   0.09  -0.03     0.01  -0.01  -0.01     0.03  -0.02  -0.02
  20   1    -0.10   0.02   0.07    -0.01   0.06  -0.02    -0.03   0.17  -0.04
                     49                     50                     51
                        a                      a                      a 
 Frequencies --  3037.9806              3043.8263              3054.0155
 Red. masses --     1.7584                 1.7925                 1.7887
 Frc consts  --     0.0000                 0.0000                 0.0000
 IR Inten    --     4.0138                21.2449                 4.7047
 Raman Activ --     0.0000                 0.0000                 0.0000
 Depolar     --     0.0000                 0.0000                 0.0000
 Atom AN      X      Y      Z        X      Y      Z        X      Y      Z
   1  35    -0.00   0.00   0.00    -0.00  -0.00  -0.00    -0.00   0.00   0.00
   2  50     0.00   0.00  -0.00     0.00   0.00   0.00     0.00   0.00  -0.00
   3  35    -0.00  -0.00   0.00    -0.00  -0.00   0.00    -0.00  -0.00   0.00
   4   8    -0.00   0.00   0.00    -0.00   0.00   0.00     0.00  -0.00   0.00
   5   6    -0.02   0.01   0.07    -0.01  -0.01   0.02    -0.00  -0.00   0.00
   6   6    -0.01   0.06  -0.01    -0.01   0.05  -0.01     0.00  -0.01   0.00
   7   6    -0.01  -0.00   0.01     0.00   0.01  -0.01    -0.00  -0.00   0.00
   8   6    -0.18   0.12   0.10     0.00  -0.00  -0.00    -0.03   0.02   0.02
   9   6     0.01  -0.05   0.01    -0.00   0.00   0.00    -0.02   0.12  -0.03
  10   6     0.01   0.00  -0.01    -0.01  -0.01   0.01    -0.12  -0.10   0.13
  11   6    -0.00   0.00   0.00     0.06  -0.04  -0.03     0.08  -0.05  -0.04
  12   6     0.00  -0.02   0.00    -0.04   0.24  -0.05     0.01  -0.05   0.01
  13   1     0.06   0.15  -0.23     0.02   0.06  -0.09     0.00   0.01  -0.01
  14   1    -0.01  -0.20  -0.01    -0.00  -0.01   0.00     0.00   0.01   0.00
  15   1     0.06  -0.21   0.03     0.04  -0.17   0.03    -0.00   0.02  -0.00
  16   1     0.64  -0.41  -0.37    -0.01   0.01   0.01     0.10  -0.07  -0.06
  17   1    -0.04   0.19  -0.04     0.00  -0.01   0.00     0.09  -0.45   0.10
  18   1    -0.02  -0.02   0.03     0.05   0.04  -0.05     0.42   0.35  -0.47
  19   1     0.01  -0.00  -0.00    -0.23   0.15   0.13    -0.28   0.18   0.16
  20   1    -0.01   0.06  -0.01     0.16  -0.85   0.19    -0.03   0.18  -0.04
                     52                     53                     54
                        a                      a                      a 
 Frequencies --  3061.0759              3061.9401              3068.9687
 Red. masses --     2.0469                 1.9257                 1.9195
 Frc consts  --     0.0000                 0.0000                 0.0000
 IR Inten    --     8.1119                46.0868                39.6613
 Raman Activ --     0.0000                 0.0000                 0.0000
 Depolar     --     0.0000                 0.0000                 0.0000
 Atom AN      X      Y      Z        X      Y      Z        X      Y      Z
   1  35    -0.00   0.00   0.00    -0.00   0.00   0.00     0.00   0.00  -0.00
   2  50    -0.00  -0.00  -0.00     0.00   0.00   0.00     0.00  -0.00   0.00
   3  35    -0.00  -0.00   0.00    -0.00  -0.00   0.00    -0.00  -0.00   0.00
   4   8     0.00   0.00   0.00    -0.00  -0.00  -0.00    -0.00   0.00   0.00
   5   6    -0.05  -0.22   0.14     0.03   0.13  -0.08     0.00   0.00  -0.00
   6   6     0.01  -0.06   0.01    -0.01   0.04  -0.01    -0.00   0.00  -0.00
   7   6     0.00  -0.00  -0.00     0.00  -0.00  -0.00     0.00   0.00  -0.00
   8   6    -0.01   0.00   0.00    -0.04   0.03   0.02     0.02  -0.01  -0.01
