17
 energy: -25.230868882039 gnorm: 0.000188101266 xtb: 6.5.1 (conda-forge)
C            0.75221902761061        0.98725054675574       -0.34496129157315
C            1.13896626694278       -0.42580007492990       -0.20235611891313
O           -0.20006589831239       -0.02279045375744       -0.21690048829853
C            1.72770951196664       -0.92876380211007        1.06525958882381
C            1.05891327414489       -0.76813768781527        2.27260928100596
C            1.62652822064381       -1.22329099241165        3.44855797338198
C            2.86743772467847       -1.83733123241829        3.42922914311885
C            3.53719135264591       -2.00119690922297        2.22800119640624
C            2.96990679663022       -1.55196786873566        1.04937302015082
H            0.81129807657188        1.46407788623574       -1.31708781564407
H            0.85789065779517        1.64826275000614        0.50828255163429
H            1.47003996933168       -0.94260762988916       -1.10194523873478
H            0.08582470232167       -0.29963217469561        2.27624915072338
H            1.09830949094414       -1.10005147540959        4.38255062018092
H            3.31052449409641       -2.19242515399034        4.34784021922917
H            4.50352733254264       -2.48340891969330        2.20894800560986
H            3.49069899944495       -1.68190680791833        0.11139020289851